LAMMPS data file via write_data, version 12 Dec 2018, timestep = 0

36 atoms
5 atom types
39 bonds
5 bond types
72 angles
8 angle types
156 dihedrals
10 dihedral types
12 impropers
2 improper types

-100 100 xlo xhi
-100 100 ylo yhi
-100 100 zlo zhi

Masses

1 12.011
2 14.0072
3 14.0072
4 15.9994
5 1.008

Atoms # full

1 1 1 -2.1600000000000000e-01 6.457 3.970 4.543 0 0 0
2 1 5 2.1600000000000000e-01 7.127 4.476 5.020 0 0 0
3 1 2 4.5100000000000001e-02 6.446 2.560 4.902 0 0 0
4 1 3 6.8850000000000000e-01 7.029 2.200 6.149 0 0 0
5 1 4 -3.6680000000000001e-01 6.770 1.090 6.544 0 0 0
6 1 4 -3.6680000000000001e-01 7.769 3.007 6.664 0 0 0
7 1 1 -2.1600000000000000e-01 5.089 2.039 4.632 0 0 0
8 1 5 2.1600000000000000e-01 4.849 1.453 5.245 0 0 0
9 1 2 4.5100000000000001e-02 5.057 1.398 3.353 0 0 0
10 1 3 6.8850000000000000e-01 5.029 0.005 3.270 0 0 0
11 1 4 -3.6680000000000001e-01 5.059 -0.467 2.155 0 0 0
12 1 4 -3.6680000000000001e-01 4.912 -0.586 4.321 0 0 0
13 1 1 -2.1600000000000000e-01 5.436 2.181 2.210 0 0 0
14 1 5 2.1600000000000000e-01 5.347 1.723 1.471 0 0 0
15 1 2 4.5100000000000001e-02 6.771 2.770 2.330 0 0 0
16 1 3 6.8850000000000000e-01 7.876 1.973 2.512 0 0 0
17 1 4 -3.6680000000000001e-01 7.765 0.807 2.207 0 0 0
18 1 4 -3.6680000000000001e-01 8.877 2.521 2.939 0 0 0
19 1 1 -2.1600000000000000e-01 6.695 4.071 2.976 0 0 0
20 1 5 2.1600000000000000e-01 7.479 4.623 2.744 0 0 0
21 1 2 4.5100000000000001e-02 5.519 4.608 2.310 0 0 0
22 1 3 6.8850000000000000e-01 5.816 5.244 1.052 0 0 0
23 1 4 -3.6680000000000001e-01 6.942 5.655 0.896 0 0 0
24 1 4 -3.6680000000000001e-01 4.887 5.364 0.286 0 0 0
25 1 1 -2.1600000000000000e-01 4.562 3.480 2.158 0 0 0
26 1 5 2.1600000000000000e-01 4.121 3.592 1.364 0 0 0
27 1 2 4.5100000000000001e-02 3.627 3.447 3.251 0 0 0
28 1 3 6.8850000000000000e-01 2.545 4.355 3.161 0 0 0
29 1 4 -3.6680000000000001e-01 1.935 4.556 4.183 0 0 0
30 1 4 -3.6680000000000001e-01 2.304 4.815 2.069 0 0 0
31 1 1 -2.1600000000000000e-01 4.186 3.327 4.582 0 0 0
32 1 5 2.1600000000000000e-01 3.483 3.252 5.220 0 0 0
33 1 2 4.5100000000000001e-02 5.109 4.432 4.855 0 0 0
34 1 3 6.8850000000000000e-01 4.922 5.196 6.020 0 0 0
35 1 4 -3.6680000000000001e-01 3.775 5.309 6.405 0 0 0
36 1 4 -3.6680000000000001e-01 5.894 5.724 6.503 0 0 0

Bonds

1 4 2 1
2 3 3 1
3 2 4 3
4 1 5 4
5 1 6 4
6 3 7 3
7 4 8 7
8 3 9 7
9 2 10 9
10 1 11 10
11 1 12 10
12 3 13 9
13 4 14 13
14 3 15 13
15 2 16 15
16 1 17 16
17 1 18 16
18 5 19 1
19 3 19 15
20 4 20 19
21 3 21 19
22 2 22 21
23 1 23 22
24 1 24 22
25 5 25 13
26 3 25 21
27 4 26 25
28 3 27 25
29 2 28 27
30 1 29 28
31 1 30 28
32 5 31 7
33 3 31 27
34 4 32 31
35 3 33 1
36 3 33 31
37 2 34 33
38 1 35 34
39 1 36 34

Angles

1 5 2 1 3
2 5 2 1 33
3 8 2 1 19
4 7 3 1 33
5 4 19 1 33
6 4 3 1 19
7 3 1 3 4
8 3 4 3 7
9 4 1 3 7
10 1 5 4 6
11 2 3 4 5
12 2 3 4 6
13 5 3 7 8
14 5 8 7 9
15 8 8 7 31
16 7 3 7 9
17 4 3 7 31
18 4 9 7 31
19 3 7 9 10
20 3 10 9 13
21 4 7 9 13
22 1 11 10 12
23 2 9 10 11
24 2 9 10 12
25 5 9 13 14
26 5 14 13 15
27 8 14 13 25
28 7 9 13 15
29 4 9 13 25
30 4 15 13 25
31 3 13 15 16
32 3 16 15 19
33 4 13 15 19
34 1 17 16 18
35 2 15 16 17
36 2 15 16 18
37 5 20 19 21
38 5 15 19 20
39 8 1 19 20
40 7 15 19 21
41 4 1 19 21
42 4 1 19 15
43 3 19 21 22
44 3 22 21 25
45 4 19 21 25
46 1 23 22 24
47 2 21 22 23
48 2 21 22 24
49 5 26 25 27
50 5 21 25 26
51 8 13 25 26
52 7 21 25 27
53 4 13 25 27
54 4 13 25 21
55 3 25 27 28
56 3 28 27 31
57 4 25 27 31
58 1 29 28 30
59 2 27 28 29
60 2 27 28 30
61 5 27 31 32
62 5 32 31 33
63 8 7 31 32
64 7 27 31 33
65 4 7 31 33
66 4 7 31 27
67 3 1 33 34
68 3 31 33 34
69 4 1 33 31
70 1 35 34 36
71 2 33 34 35
72 2 33 34 36

Dihedrals

1 5 33 1 3 7
2 6 33 1 3 7
3 7 33 1 3 7
4 8 19 1 3 4
5 8 19 1 33 34
6 9 19 1 3 4
7 9 19 1 33 34
8 10 19 1 3 4
9 10 19 1 33 34
10 1 7 3 4 5
11 1 7 3 4 6
12 2 7 3 4 5
13 2 7 3 4 6
14 3 7 3 4 5
15 3 7 3 4 6
16 4 7 3 1 2
17 8 4 3 7 31
18 9 4 3 7 31
19 10 4 3 7 31
20 1 5 4 3 1
21 1 6 4 3 1
22 2 5 4 3 1
23 2 6 4 3 1
24 3 5 4 3 1
25 3 6 4 3 1
26 4 8 7 3 1
27 5 9 7 3 1
28 6 9 7 3 1
29 7 9 7 3 1
30 8 31 7 9 10
31 9 31 7 9 10
32 10 31 7 9 10
33 1 13 9 10 12
34 1 13 9 10 11
35 2 13 9 10 12
36 2 13 9 10 11
37 3 13 9 10 12
38 3 13 9 10 11
39 4 13 9 7 8
40 5 13 9 7 3
41 6 13 9 7 3
42 7 13 9 7 3
43 8 10 9 13 25
44 9 10 9 13 25
45 10 10 9 13 25
46 1 11 10 9 7
47 1 12 10 9 7
48 2 11 10 9 7
49 2 12 10 9 7
50 3 11 10 9 7
51 3 12 10 9 7
52 4 14 13 9 7
53 5 15 13 9 7
54 6 15 13 9 7
55 7 15 13 9 7
56 8 25 13 15 16
57 9 25 13 15 16
58 10 25 13 15 16
59 1 19 15 16 17
60 1 19 15 16 18
61 2 19 15 16 17
62 2 19 15 16 18
63 3 19 15 16 17
64 3 19 15 16 18
65 4 19 15 13 14
66 5 19 15 13 9
67 6 19 15 13 9
68 7 19 15 13 9
69 8 16 15 19 1
70 9 16 15 19 1
71 10 16 15 19 1
72 1 17 16 15 13
73 1 18 16 15 13
74 2 17 16 15 13
75 2 18 16 15 13
76 3 17 16 15 13
77 3 18 16 15 13
78 4 20 19 15 13
79 5 21 19 15 13
80 6 21 19 15 13
81 7 21 19 15 13
82 8 1 19 21 22
83 9 1 19 21 22
84 10 1 19 21 22
85 1 25 21 22 23
86 1 25 21 22 24
87 2 25 21 22 23
88 2 25 21 22 24
89 3 25 21 22 23
90 3 25 21 22 24
91 4 25 21 19 20
92 5 25 21 19 15
93 6 25 21 19 15
94 7 25 21 19 15
95 8 22 21 25 13
96 9 22 21 25 13
97 10 22 21 25 13
98 1 23 22 21 19
99 1 24 22 21 19
100 2 23 22 21 19
101 2 24 22 21 19
102 3 23 22 21 19
103 3 24 22 21 19
104 4 26 25 21 19
105 5 27 25 21 19
106 6 27 25 21 19
107 7 27 25 21 19
108 8 13 25 27 28
109 9 13 25 27 28
110 10 13 25 27 28
111 1 31 27 28 30
112 1 31 27 28 29
113 2 31 27 28 30
114 2 31 27 28 29
115 3 31 27 28 30
116 3 31 27 28 29
117 4 31 27 25 26
118 5 31 27 25 21
119 6 31 27 25 21
120 7 31 27 25 21
121 8 28 27 31 7
122 9 28 27 31 7
123 10 28 27 31 7
124 1 29 28 27 25
125 1 30 28 27 25
126 2 29 28 27 25
127 2 30 28 27 25
128 3 29 28 27 25
129 3 30 28 27 25
130 4 32 31 33 1
131 4 32 31 27 25
132 5 33 31 27 25
133 5 27 31 33 1
134 6 33 31 27 25
135 6 27 31 33 1
136 7 33 31 27 25
137 7 27 31 33 1
138 8 7 31 33 34
139 9 7 31 33 34
140 10 7 31 33 34
141 4 31 33 1 2
142 5 31 33 1 3
143 6 31 33 1 3
144 7 31 33 1 3
145 1 35 34 33 1
146 1 36 34 33 31
147 1 35 34 33 31
148 1 36 34 33 1
149 2 35 34 33 1
150 2 36 34 33 31
151 2 35 34 33 31
152 2 36 34 33 1
153 3 35 34 33 1
154 3 36 34 33 31
155 3 35 34 33 31
156 3 36 34 33 1

Impropers

1 1 3 1 7 4
2 2 4 5 6 3
3 2 10 11 12 9
4 1 9 13 7 10
5 1 15 13 19 16
6 2 16 17 18 15
7 1 21 19 25 22
8 2 22 23 24 21
9 1 27 25 31 28
10 2 28 29 30 27
11 1 33 31 1 34
12 2 34 35 36 33
